Generic Input                           
   1.00000000000000     
     3.319900    0.000000    0.000000
     0.000000   10.367800    0.000000
     0.000000    0.000000    4.315400
   P 
     8
Direct
  0.500000  0.104370  0.917900
  0.500000  0.895630  0.082100
  0.500000  0.395630  0.417900
  0.500000  0.604370  0.582100
  0.000000  0.604370  0.917900
  0.000000  0.395630  0.082100
  0.000000  0.895630  0.417900
  0.000000  0.104370  0.582100
 
   32  108   48
 0.90486211254E+01 0.90052197090E+01 0.89047996540E+01 0.87097653155E+01 0.84316861729E+01
 0.80088525567E+01 0.75264373538E+01 0.68891252072E+01 0.61600369667E+01 0.52820665948E+01
 0.43748944472E+01 0.33672906201E+01 0.23092041402E+01 0.15724186640E+01 0.93221331022E+00
 0.47324809503E+00 0.28880830913E+00 0.47324809503E+00 0.93221331022E+00 0.15724186640E+01
 0.23092041402E+01 0.33672906201E+01 0.43748944472E+01 0.52820665948E+01 0.61600369667E+01
 0.68891252072E+01 0.75264373538E+01 0.80088525567E+01 0.84316861729E+01 0.87097653155E+01
 0.89047996540E+01 0.90052197090E+01 0.90471691842E+01 0.90145216042E+01 0.88801787351E+01
 0.86721880942E+01 0.83575424864E+01 0.79783797284E+01 0.74248008615E+01 0.67785443935E+01
 0.59684207353E+01 0.50739992247E+01 0.40135034147E+01 0.29588413151E+01 0.19746731673E+01
 0.81507270091E+00 -.65795018406E-01 -.57281370221E+00 -.71635123035E+00 -.57281370221E+00
 -.65795018406E-01 0.81507270091E+00 0.19746731673E+01 0.29588413151E+01 0.40135034147E+01
 0.50739992247E+01 0.59684207353E+01 0.67785443935E+01 0.74248008615E+01 0.79783797284E+01
 0.83575424864E+01 0.86721880942E+01 0.88801787351E+01 0.90145216042E+01 0.89886208848E+01
 0.89369576110E+01 0.88229958245E+01 0.85935958275E+01 0.82704365696E+01 0.77716672531E+01
 0.71874143092E+01 0.63973185345E+01 0.54742140782E+01 0.43255441676E+01 0.31146095071E+01
 0.16921722401E+01 0.21306978718E+00 -.57615381402E+00 -.10470402711E+01 -.13666747401E+01
 -.15111663352E+01 -.13666747401E+01 -.10470402711E+01 -.57615381402E+00 0.21306978718E+00
 0.16921722401E+01 0.31146095071E+01 0.43255441676E+01 0.54742140782E+01 0.63973185345E+01
 0.71874143092E+01 0.77716672531E+01 0.82704365696E+01 0.85935958275E+01 0.88229958245E+01
 0.89369576110E+01 0.89201988093E+01 0.88871520432E+01 0.87122395822E+01 0.84580397963E+01
 0.80384732042E+01 0.75262367482E+01 0.67528269481E+01 0.58270974047E+01 0.45964944009E+01
 0.32060389723E+01 0.14140344322E+01 -.16175730516E+00 -.95068586868E+00 -.22470175351E+01
 -.39734448929E+01 -.54361761416E+01 -.59808464555E+01 -.54361761416E+01 -.39734448929E+01
 -.22470175351E+01 -.95068586868E+00 -.16175730516E+00 0.14140344322E+01 0.32060389723E+01
 0.45964944009E+01 0.58270974047E+01 0.67528269481E+01 0.75262367482E+01 0.80384732042E+01
 0.84580397963E+01 0.87122395822E+01 0.88871520432E+01 0.88396823841E+01 0.87493895760E+01
 0.86107916446E+01 0.82681846914E+01 0.78373544748E+01 0.71077339017E+01 0.62473908179E+01
 0.49889330148E+01 0.35139492837E+01 0.14743196079E+01 -.29112721178E+00 -.14972887547E+01
 -.45346225118E+01 -.88273036697E+01 -.12899753648E+02 -.15709889477E+02 -.16699490302E+02
 -.15709889477E+02 -.12899753648E+02 -.88273036697E+01 -.45346225118E+01 -.14972887547E+01
 -.29112721178E+00 0.14743196079E+01 0.35139492837E+01 0.49889330148E+01 0.62473908179E+01
 0.71077339017E+01 0.78373544748E+01 0.82681846914E+01 0.86107916446E+01 0.87493895760E+01
 0.86998393462E+01 0.86830054362E+01 0.84290985428E+01 0.81082411526E+01 0.74781799105E+01
 0.67371648847E+01 0.55468694190E+01 0.40999055714E+01 0.20126970065E+01 -.11968471306E+00
 -.16651639789E+01 -.60182544769E+01 -.12731993845E+02 -.19568974188E+02 -.25313205269E+02
 -.28934016007E+02 -.30238027599E+02 -.28934016007E+02 -.25313205269E+02 -.19568974188E+02
 -.12731993845E+02 -.60182544769E+01 -.16651639789E+01 -.11968471306E+00 0.20126970065E+01
 0.40999055714E+01 0.55468694190E+01 0.67371648847E+01 0.74781799105E+01 0.81082411526E+01
 0.84290985428E+01 0.86830054362E+01 0.85997684097E+01 0.85203542178E+01 0.82784090197E+01
 0.78674664262E+01 0.72249589567E+01 0.62403530559E+01 0.48602026232E+01 0.30357742695E+01
 0.50456011958E+00 -.11880523739E+01 -.54447829812E+01 -.13684029383E+02 -.22977005791E+02
 -.31733372738E+02 -.38287896704E+02 -.42506453668E+02 -.43812579282E+02 -.42506453668E+02
 -.38287896704E+02 -.31733372738E+02 -.22977005791E+02 -.13684029383E+02 -.54447829812E+01
 -.11880523739E+01 0.50456011958E+00 0.30357742695E+01 0.48602026232E+01 0.62403530559E+01
 0.72249589567E+01 0.78674664262E+01 0.82784090197E+01 0.85203542178E+01 0.85971548223E+01
 0.84178841619E+01 0.82302720370E+01 0.76088171003E+01 0.69326850235E+01 0.57366258016E+01
 0.42608819637E+01 0.17893458955E+01 -.37443101277E+00 -.32901243188E+01 -.11229855238E+02
 -.22234948523E+02 -.33450047347E+02 -.42970010811E+02 -.50084118032E+02 -.54384346645E+02
 -.55821444287E+02 -.54384346645E+02 -.50084118032E+02 -.42970010811E+02 -.33450047347E+02
 -.22234948523E+02 -.11229855238E+02 -.32901243188E+01 -.37443101277E+00 0.17893458955E+01
 0.42608819637E+01 0.57366258016E+01 0.69326850235E+01 0.76088171003E+01 0.82302720370E+01
 0.84178841619E+01 0.84264485904E+01 0.83229494048E+01 0.80603126572E+01 0.75191912555E+01
 0.66736333129E+01 0.53269964303E+01 0.35939843636E+01 0.88094928094E+00 -.11802686545E+01
 -.64196946658E+01 -.17392884080E+02 -.30162909306E+02 -.42410130176E+02 -.52391296620E+02
 -.59682864332E+02 -.63879347202E+02 -.65356337617E+02 -.63879347202E+02 -.59682864332E+02
 -.52391296620E+02 -.42410130176E+02 -.30162909306E+02 -.17392884080E+02 -.64196946658E+01
 -.11802686545E+01 0.88094928094E+00 0.35939843636E+01 0.53269964303E+01 0.66736333129E+01
 0.75191912555E+01 0.80603126572E+01 0.83229494048E+01 0.83496780770E+01 0.82974899790E+01
 0.79380301203E+01 0.74069879057E+01 0.64249029037E+01 0.50843520138E+01 0.29910032779E+01
 0.34191496907E+00 -.21013597448E+01 -.97091218150E+01 -.22578569572E+02 -.36472191312E+02
 -.49288560199E+02 -.59339677753E+02 -.66554589110E+02 -.70658867481E+02 -.72109620418E+02
 -.70658867481E+02 -.66554589110E+02 -.59339677753E+02 -.49288560199E+02 -.36472191312E+02
 -.22578569572E+02 -.97091218150E+01 -.21013597448E+01 0.34191496907E+00 0.29910032779E+01
 0.50843520138E+01 0.64249029037E+01 0.74069879057E+01 0.79380301203E+01 0.82974899790E+01
 0.82694050238E+01 0.82555782481E+01 0.78506425647E+01 0.73756317961E+01 0.63187998874E+01
 0.49189186306E+01 0.26009237388E+01 0.96070522397E-01 -.29452029808E+01 -.12160115373E+02
 -.26122609149E+02 -.40621786382E+02 -.53619319900E+02 -.63732012856E+02 -.70828235239E+02
 -.74877009872E+02 -.76268853438E+02 -.74877009872E+02 -.70828235239E+02 -.63732012856E+02
 -.53619319900E+02 -.40621786382E+02 -.26122609149E+02 -.12160115373E+02 -.29452029808E+01
 0.96070522397E-01 0.26009237388E+01 0.49189186306E+01 0.63187998874E+01 0.73756317961E+01
 0.78506425647E+01 0.82555782481E+01 0.83127198019E+01 0.82971644044E+01 0.78672455184E+01
 0.73575470090E+01 0.62739757894E+01 0.49167305565E+01 0.24834786045E+01 0.50611990312E-01
 -.33036308862E+01 -.13253176058E+02 -.27597830203E+02 -.42368887981E+02 -.55432365136E+02
 -.65484549635E+02 -.72521727604E+02 -.76554196538E+02 -.77928524469E+02 -.76554196538E+02
 -.72521727604E+02 -.65484549635E+02 -.55432365136E+02 -.42368887981E+02 -.27597830203E+02
 -.13253176058E+02 -.33036308862E+01 0.50611990312E-01 0.24834786045E+01 0.49167305565E+01
 0.62739757894E+01 0.73575470090E+01 0.78672455184E+01 0.82971644044E+01 0.83388637552E+01
 0.83311304324E+01 0.79211491611E+01 0.74567696892E+01 0.63977524841E+01 0.50115567051E+01
 0.26489231370E+01 0.22167698523E+00 -.30190908704E+01 -.12709908171E+02 -.26945601935E+02
 -.41599225628E+02 -.54637081278E+02 -.64743808425E+02 -.71800174823E+02 -.75841427983E+02
 -.77217088295E+02 -.75841427983E+02 -.71800174823E+02 -.64743808425E+02 -.54637081278E+02
 -.41599225628E+02 -.26945601935E+02 -.12709908171E+02 -.30190908704E+01 0.22167698523E+00
 0.26489231370E+01 0.50115567051E+01 0.63977524841E+01 0.74567696892E+01 0.79211491611E+01
 0.83311304324E+01 0.84786446285E+01 0.84528212795E+01 0.80710365129E+01 0.75794116191E+01
 0.65792144281E+01 0.52765379798E+01 0.30828094490E+01 0.57592312537E+00 -.21276830093E+01
 -.10666192729E+02 -.24146639204E+02 -.38407863923E+02 -.51332434380E+02 -.61403735785E+02
 -.68576328129E+02 -.72666026108E+02 -.74096845047E+02 -.72666026108E+02 -.68576328129E+02
 -.61403735785E+02 -.51332434380E+02 -.38407863923E+02 -.24146639204E+02 -.10666192729E+02
 -.21276830093E+01 0.57592312537E+00 0.30828094490E+01 0.52765379798E+01 0.65792144281E+01
 0.75794116191E+01 0.80710365129E+01 0.84528212795E+01 0.86184716039E+01 0.85566131641E+01
 0.82659645963E+01 0.77879464678E+01 0.69156440536E+01 0.56033682050E+01 0.37615176253E+01
 0.11508572461E+01 -.98037507453E+00 -.74633205176E+01 -.19534977945E+02 -.32903947761E+02
 -.45502636172E+02 -.55581492497E+02 -.62862067843E+02 -.67026992568E+02 -.68498546608E+02
 -.67026992568E+02 -.62862067843E+02 -.55581492497E+02 -.45502636172E+02 -.32903947761E+02
 -.19534977945E+02 -.74633205176E+01 -.98037507453E+00 0.11508572461E+01 0.37615176253E+01
 0.56033682050E+01 0.69156440536E+01 0.77879464678E+01 0.82659645963E+01 0.85566131641E+01
 0.88744186573E+01 0.87364824871E+01 0.85354745000E+01 0.79736350270E+01 0.72636454619E+01
 0.60803817788E+01 0.45660061557E+01 0.20130948485E+01 0.95342057935E-01 -.39254615229E+01
 -.13532646860E+02 -.25570186338E+02 -.37390711702E+02 -.47185470871E+02 -.54490016924E+02
 -.58772118060E+02 -.60267889339E+02 -.58772118060E+02 -.54490016924E+02 -.47185470871E+02
 -.37390711702E+02 -.25570186338E+02 -.13532646860E+02 -.39254615229E+01 0.95342057935E-01
 0.20130948485E+01 0.45660061557E+01 0.60803817788E+01 0.72636454619E+01 0.79736350270E+01
 0.85354745000E+01 0.87364824871E+01 0.90418183780E+01 0.88948878302E+01 0.87405010762E+01
 0.82510383883E+01 0.76943151024E+01 0.66360047279E+01 0.53410014811E+01 0.32581415346E+01
 0.10088560423E+01 -.10017448917E+01 -.72182906714E+01 -.16997037015E+02 -.27440552695E+02
 -.36735530874E+02 -.43647779240E+02 -.47989798747E+02 -.49365998662E+02 -.47989798747E+02
 -.43647779240E+02 -.36735530874E+02 -.27440552695E+02 -.16997037015E+02 -.72182906714E+01
 -.10017448917E+01 0.10088560423E+01 0.32581415346E+01 0.53410014811E+01 0.66360047279E+01
 0.76943151024E+01 0.82510383883E+01 0.87405010762E+01 0.88948878302E+01 0.91738133102E+01
 0.91637206285E+01 0.89098193072E+01 0.86205150099E+01 0.80237584845E+01 0.73060239618E+01
 0.60650576617E+01 0.46023543922E+01 0.22828598835E+01 0.61110103322E+00 -.19809083754E+01
 -.85518701825E+01 -.16707055858E+02 -.24713103953E+02 -.30998549008E+02 -.35039366548E+02
 -.36365028819E+02 -.35039366548E+02 -.30998549008E+02 -.24713103953E+02 -.16707055858E+02
 -.85518701825E+01 -.19809083754E+01 0.61110103322E+00 0.22828598835E+01 0.46023543922E+01
 0.60650576617E+01 0.73060239618E+01 0.80237584845E+01 0.86205150099E+01 0.89098193072E+01
 0.91637206285E+01 0.93881841441E+01 0.93427332985E+01 0.92003064301E+01 0.89307863574E+01
 0.84830960420E+01 0.78078923849E+01 0.69242733461E+01 0.56589162546E+01 0.40368890025E+01
 0.18925318742E+01 0.59242338627E+00 -.18456487733E+01 -.70054023602E+01 -.12780299011E+02
 -.17907292895E+02 -.21193534048E+02 -.22410013374E+02 -.21193534048E+02 -.17907292895E+02
 -.12780299011E+02 -.70054023602E+01 -.18456487733E+01 0.59242338627E+00 0.18925318742E+01
 0.40368890025E+01 0.56589162546E+01 0.69242733461E+01 0.78078923849E+01 0.84830960420E+01
 0.89307863574E+01 0.92003064301E+01 0.93427332985E+01 0.96284098655E+01 0.95689286310E+01
 0.94449219198E+01 0.91848410917E+01 0.88545114725E+01 0.83598070076E+01 0.76490353518E+01
 0.66880014770E+01 0.54616465242E+01 0.38851248152E+01 0.20142004762E+01 0.96494175549E+00
 -.49042685311E+00 -.33194199369E+01 -.63522961068E+01 -.86635943695E+01 -.94543344915E+01
 -.86635943695E+01 -.63522961068E+01 -.33194199369E+01 -.49042685311E+00 0.96494175549E+00
 0.20142004762E+01 0.38851248152E+01 0.54616465242E+01 0.66880014770E+01 0.76490353518E+01
 0.83598070076E+01 0.88545114725E+01 0.91848410917E+01 0.94449219198E+01 0.95689286310E+01
 0.97608674904E+01 0.97466412560E+01 0.96477574647E+01 0.95071045430E+01 0.92218628258E+01
 0.88187385217E+01 0.82892587941E+01 0.75898214607E+01 0.66629700897E+01 0.55515714351E+01
 0.42217530890E+01 0.26212916676E+01 0.16384294752E+01 0.10322084440E+01 0.19512845652E+00
 -.55681305450E+00 -.89405933342E+00 -.55681305450E+00 0.19512845652E+00 0.10322084440E+01
 0.16384294752E+01 0.26212916676E+01 0.42217530890E+01 0.55515714351E+01 0.66629700897E+01
 0.75898214607E+01 0.82892587941E+01 0.88187385217E+01 0.92218628258E+01 0.95071045430E+01
 0.96477574647E+01 0.97466412560E+01 0.99767884150E+01 0.99390435690E+01 0.98640996356E+01
 0.97010585035E+01 0.95111521283E+01 0.92423900687E+01 0.88413879098E+01 0.83174843781E+01
 0.76762249275E+01 0.68686958179E+01 0.59384832273E+01 0.49827718119E+01 0.37841687705E+01
 0.27830114399E+01 0.22507758588E+01 0.19700706479E+01 0.18996791427E+01 0.19700706479E+01
 0.22507758588E+01 0.27830114399E+01 0.37841687705E+01 0.49827718119E+01 0.59384832273E+01
 0.68686958179E+01 0.76762249275E+01 0.83174843781E+01 0.88413879098E+01 0.92423900687E+01
 0.95111521283E+01 0.97010585035E+01 0.98640996356E+01 0.99390435690E+01 0.10059879452E+02
 0.10055097225E+02 0.10005071529E+02 0.99405139273E+01 0.97856923435E+01 0.95563207130E+01
 0.92856652605E+01 0.89249327726E+01 0.84556713872E+01 0.79143559095E+01 0.72859413096E+01
 0.65533388584E+01 0.59449502630E+01 0.53191814483E+01 0.46880695127E+01 0.42823986419E+01
 0.41302763292E+01 0.42823986419E+01 0.46880695127E+01 0.53191814483E+01 0.59449502630E+01
 0.65533388584E+01 0.72859413096E+01 0.79143559095E+01 0.84556713872E+01 0.89249327726E+01
 0.92856652605E+01 0.95563207130E+01 0.97856923435E+01 0.99405139273E+01 0.10005071529E+02
 0.10055097225E+02 0.10199974607E+02 0.10177203762E+02 0.10137083068E+02 0.10043165416E+02
 0.99526671091E+01 0.98357057164E+01 0.96308611210E+01 0.93762418488E+01 0.90734632990E+01
 0.86924415275E+01 0.82674628045E+01 0.78503496338E+01 0.73311350816E+01 0.68955221967E+01
 0.66214321809E+01 0.64297175952E+01 0.63725114559E+01 0.64297175952E+01 0.66214321809E+01
 0.68955221967E+01 0.73311350816E+01 0.78503496338E+01 0.82674628045E+01 0.86924415275E+01
 0.90734632990E+01 0.93762418488E+01 0.96308611210E+01 0.98357057164E+01 0.99526671091E+01
 0.10043165416E+02 0.10137083068E+02 0.10177203762E+02 0.10186998346E+02 0.10191579867E+02
 0.10176970497E+02 0.10169607159E+02 0.10101846097E+02 0.99868483375E+01 0.98782695591E+01
 0.97196986801E+01 0.95078193381E+01 0.92735433573E+01 0.90001624859E+01 0.86767967902E+01
 0.84362266731E+01 0.81833471826E+01 0.79171464580E+01 0.77562260176E+01 0.76914142184E+01
 0.77562260176E+01 0.79171464580E+01 0.81833471826E+01 0.84362266731E+01 0.86767967902E+01
 0.90001624859E+01 0.92735433573E+01 0.95078193381E+01 0.97196986801E+01 0.98782695591E+01
 0.99868483375E+01 0.10101846097E+02 0.10169607159E+02 0.10176970497E+02 0.10191579867E+02
 0.10203567358E+02 0.10191076142E+02 0.10178294967E+02 0.10134046509E+02 0.10116922025E+02
 0.10103830974E+02 0.10023653832E+02 0.99302821854E+01 0.98192473990E+01 0.96645593632E+01
 0.94952501609E+01 0.93389303510E+01 0.91132151374E+01 0.89356419917E+01 0.88448010352E+01
 0.87732097905E+01 0.87568181422E+01 0.87732097905E+01 0.88448010352E+01 0.89356419917E+01
 0.91132151374E+01 0.93389303510E+01 0.94952501609E+01 0.96645593632E+01 0.98192473990E+01
 0.99302821854E+01 0.10023653832E+02 0.10103830974E+02 0.10116922025E+02 0.10134046509E+02
 0.10178294967E+02 0.10191076142E+02 0.10022228904E+02 0.10036800389E+02 0.10054334426E+02
 0.10098608827E+02 0.10099661167E+02 0.10069126044E+02 0.10073925663E+02 0.10044686611E+02
 0.99848573521E+01 0.99203862462E+01 0.98299917458E+01 0.97061316681E+01 0.96401638926E+01
 0.95529919058E+01 0.94359009003E+01 0.93720040046E+01 0.93415721943E+01 0.93720040046E+01
 0.94359009003E+01 0.95529919058E+01 0.96401638926E+01 0.97061316681E+01 0.98299917458E+01
 0.99203862462E+01 0.99848573521E+01 0.10044686611E+02 0.10073925663E+02 0.10069126044E+02
 0.10099661167E+02 0.10098608827E+02 0.10054334426E+02 0.10036800389E+02 0.98266081104E+01
 0.98246631653E+01 0.98421202767E+01 0.98482137273E+01 0.99050462862E+01 0.99874126748E+01
 0.10008030529E+02 0.10033787595E+02 0.10051152031E+02 0.10033787595E+02 0.10008030529E+02
 0.99874126748E+01 0.99050462862E+01 0.98482137273E+01 0.98421202767E+01 0.98246631653E+01
 0.98266081104E+01 0.98246631653E+01 0.98421202767E+01 0.98482137273E+01 0.99050462862E+01
 0.99874126748E+01 0.10008030529E+02 0.10033787595E+02 0.10051152031E+02 0.10033787595E+02
 0.10008030529E+02 0.99874126748E+01 0.99050462862E+01 0.98482137273E+01 0.98421202767E+01
 0.98246631653E+01 0.93415721943E+01 0.93720040046E+01 0.94359009003E+01 0.95529919058E+01
 0.96401638926E+01 0.97061316681E+01 0.98299917458E+01 0.99203862462E+01 0.99848573521E+01
 0.10044686611E+02 0.10073925663E+02 0.10069126044E+02 0.10099661167E+02 0.10098608827E+02
 0.10054334426E+02 0.10036800389E+02 0.10022228904E+02 0.10036800389E+02 0.10054334426E+02
 0.10098608827E+02 0.10099661167E+02 0.10069126044E+02 0.10073925663E+02 0.10044686611E+02
 0.99848573521E+01 0.99203862462E+01 0.98299917458E+01 0.97061316681E+01 0.96401638926E+01
 0.95529919058E+01 0.94359009003E+01 0.93720040046E+01 0.87568181422E+01 0.87732097905E+01
 0.88448010352E+01 0.89356419917E+01 0.91132151374E+01 0.93389303510E+01 0.94952501609E+01
 0.96645593632E+01 0.98192473990E+01 0.99302821854E+01 0.10023653832E+02 0.10103830974E+02
 0.10116922025E+02 0.10134046509E+02 0.10178294967E+02 0.10191076142E+02 0.10203567358E+02
 0.10191076142E+02 0.10178294967E+02 0.10134046509E+02 0.10116922025E+02 0.10103830974E+02
 0.10023653832E+02 0.99302821854E+01 0.98192473990E+01 0.96645593632E+01 0.94952501609E+01
 0.93389303510E+01 0.91132151374E+01 0.89356419917E+01 0.88448010352E+01 0.87732097905E+01
 0.76914142184E+01 0.77562260176E+01 0.79171464580E+01 0.81833471826E+01 0.84362266731E+01
 0.86767967902E+01 0.90001624859E+01 0.92735433573E+01 0.95078193381E+01 0.97196986801E+01
 0.98782695591E+01 0.99868483375E+01 0.10101846097E+02 0.10169607159E+02 0.10176970497E+02
 0.10191579867E+02 0.10186998346E+02 0.10191579867E+02 0.10176970497E+02 0.10169607159E+02
 0.10101846097E+02 0.99868483375E+01 0.98782695591E+01 0.97196986801E+01 0.95078193381E+01
 0.92735433573E+01 0.90001624859E+01 0.86767967902E+01 0.84362266731E+01 0.81833471826E+01
 0.79171464580E+01 0.77562260176E+01 0.63725114559E+01 0.64297175952E+01 0.66214321809E+01
 0.68955221967E+01 0.73311350816E+01 0.78503496338E+01 0.82674628045E+01 0.86924415275E+01
 0.90734632990E+01 0.93762418488E+01 0.96308611210E+01 0.98357057164E+01 0.99526671091E+01
 0.10043165416E+02 0.10137083068E+02 0.10177203762E+02 0.10199974607E+02 0.10177203762E+02
 0.10137083068E+02 0.10043165416E+02 0.99526671091E+01 0.98357057164E+01 0.96308611210E+01
 0.93762418488E+01 0.90734632990E+01 0.86924415275E+01 0.82674628045E+01 0.78503496338E+01
 0.73311350816E+01 0.68955221967E+01 0.66214321809E+01 0.64297175952E+01 0.41302763292E+01
 0.42823986419E+01 0.46880695127E+01 0.53191814483E+01 0.59449502630E+01 0.65533388584E+01
 0.72859413096E+01 0.79143559095E+01 0.84556713872E+01 0.89249327726E+01 0.92856652605E+01
 0.95563207130E+01 0.97856923435E+01 0.99405139273E+01 0.10005071529E+02 0.10055097225E+02
 0.10059879452E+02 0.10055097225E+02 0.10005071529E+02 0.99405139273E+01 0.97856923435E+01
 0.95563207130E+01 0.92856652605E+01 0.89249327726E+01 0.84556713872E+01 0.79143559095E+01
 0.72859413096E+01 0.65533388584E+01 0.59449502630E+01 0.53191814483E+01 0.46880695127E+01
 0.42823986419E+01 0.18996791427E+01 0.19700706479E+01 0.22507758588E+01 0.27830114399E+01
 0.37841687705E+01 0.49827718119E+01 0.59384832273E+01 0.68686958179E+01 0.76762249275E+01
 0.83174843781E+01 0.88413879098E+01 0.92423900687E+01 0.95111521283E+01 0.97010585035E+01
 0.98640996356E+01 0.99390435690E+01 0.99767884150E+01 0.99390435690E+01 0.98640996356E+01
 0.97010585035E+01 0.95111521283E+01 0.92423900687E+01 0.88413879098E+01 0.83174843781E+01
 0.76762249275E+01 0.68686958179E+01 0.59384832273E+01 0.49827718119E+01 0.37841687705E+01
 0.27830114399E+01 0.22507758588E+01 0.19700706479E+01 -.89405933341E+00 -.55681305450E+00
 0.19512845652E+00 0.10322084440E+01 0.16384294752E+01 0.26212916676E+01 0.42217530890E+01
 0.55515714351E+01 0.66629700897E+01 0.75898214607E+01 0.82892587941E+01 0.88187385217E+01
 0.92218628258E+01 0.95071045430E+01 0.96477574647E+01 0.97466412560E+01 0.97608674904E+01
 0.97466412560E+01 0.96477574647E+01 0.95071045430E+01 0.92218628258E+01 0.88187385217E+01
 0.82892587941E+01 0.75898214607E+01 0.66629700897E+01 0.55515714351E+01 0.42217530890E+01
 0.26212916676E+01 0.16384294752E+01 0.10322084440E+01 0.19512845652E+00 -.55681305450E+00
 -.94543344915E+01 -.86635943695E+01 -.63522961068E+01 -.33194199369E+01 -.49042685311E+00
 0.96494175549E+00 0.20142004762E+01 0.38851248152E+01 0.54616465242E+01 0.66880014770E+01
 0.76490353518E+01 0.83598070076E+01 0.88545114725E+01 0.91848410917E+01 0.94449219198E+01
 0.95689286310E+01 0.96284098655E+01 0.95689286310E+01 0.94449219198E+01 0.91848410917E+01
 0.88545114725E+01 0.83598070076E+01 0.76490353518E+01 0.66880014770E+01 0.54616465242E+01
 0.38851248152E+01 0.20142004762E+01 0.96494175549E+00 -.49042685311E+00 -.33194199369E+01
 -.63522961068E+01 -.86635943695E+01 -.22410013374E+02 -.21193534048E+02 -.17907292895E+02
 -.12780299011E+02 -.70054023602E+01 -.18456487733E+01 0.59242338627E+00 0.18925318742E+01
 0.40368890025E+01 0.56589162546E+01 0.69242733461E+01 0.78078923849E+01 0.84830960420E+01
 0.89307863574E+01 0.92003064301E+01 0.93427332985E+01 0.93881841441E+01 0.93427332985E+01
 0.92003064301E+01 0.89307863574E+01 0.84830960420E+01 0.78078923849E+01 0.69242733461E+01
 0.56589162546E+01 0.40368890025E+01 0.18925318742E+01 0.59242338627E+00 -.18456487733E+01
 -.70054023602E+01 -.12780299011E+02 -.17907292895E+02 -.21193534048E+02 -.36365028819E+02
 -.35039366548E+02 -.30998549008E+02 -.24713103953E+02 -.16707055858E+02 -.85518701825E+01
 -.19809083754E+01 0.61110103322E+00 0.22828598835E+01 0.46023543922E+01 0.60650576617E+01
 0.73060239618E+01 0.80237584845E+01 0.86205150099E+01 0.89098193072E+01 0.91637206285E+01
 0.91738133102E+01 0.91637206285E+01 0.89098193072E+01 0.86205150099E+01 0.80237584845E+01
 0.73060239618E+01 0.60650576617E+01 0.46023543922E+01 0.22828598835E+01 0.61110103322E+00
 -.19809083754E+01 -.85518701825E+01 -.16707055858E+02 -.24713103953E+02 -.30998549008E+02
 -.35039366548E+02 -.49365998662E+02 -.47989798747E+02 -.43647779240E+02 -.36735530874E+02
 -.27440552695E+02 -.16997037015E+02 -.72182906714E+01 -.10017448917E+01 0.10088560423E+01
 0.32581415346E+01 0.53410014811E+01 0.66360047279E+01 0.76943151024E+01 0.82510383883E+01
 0.87405010762E+01 0.88948878302E+01 0.90418183780E+01 0.88948878302E+01 0.87405010762E+01
 0.82510383883E+01 0.76943151024E+01 0.66360047279E+01 0.53410014811E+01 0.32581415346E+01
 0.10088560423E+01 -.10017448917E+01 -.72182906714E+01 -.16997037015E+02 -.27440552695E+02
 -.36735530874E+02 -.43647779240E+02 -.47989798747E+02 -.60267889339E+02 -.58772118060E+02
 -.54490016924E+02 -.47185470871E+02 -.37390711702E+02 -.25570186338E+02 -.13532646860E+02
 -.39254615229E+01 0.95342057935E-01 0.20130948485E+01 0.45660061557E+01 0.60803817788E+01
 0.72636454619E+01 0.79736350270E+01 0.85354745000E+01 0.87364824871E+01 0.88744186573E+01
 0.87364824871E+01 0.85354745000E+01 0.79736350270E+01 0.72636454619E+01 0.60803817788E+01
 0.45660061557E+01 0.20130948485E+01 0.95342057935E-01 -.39254615229E+01 -.13532646860E+02
 -.25570186338E+02 -.37390711702E+02 -.47185470871E+02 -.54490016924E+02 -.58772118060E+02
 -.68498546608E+02 -.67026992568E+02 -.62862067843E+02 -.55581492497E+02 -.45502636172E+02
 -.32903947761E+02 -.19534977945E+02 -.74633205176E+01 -.98037507453E+00 0.11508572461E+01
 0.37615176253E+01 0.56033682050E+01 0.69156440536E+01 0.77879464678E+01 0.82659645963E+01
 0.85566131641E+01 0.86184716039E+01 0.85566131641E+01 0.82659645963E+01 0.77879464678E+01
 0.69156440536E+01 0.56033682050E+01 0.37615176253E+01 0.11508572461E+01 -.98037507453E+00
 -.74633205176E+01 -.19534977945E+02 -.32903947761E+02 -.45502636172E+02 -.55581492497E+02
 -.62862067843E+02 -.67026992568E+02 -.74096845047E+02 -.72666026108E+02 -.68576328129E+02
 -.61403735785E+02 -.51332434380E+02 -.38407863923E+02 -.24146639204E+02 -.10666192729E+02
 -.21276830093E+01 0.57592312537E+00 0.30828094490E+01 0.52765379798E+01 0.65792144281E+01
 0.75794116191E+01 0.80710365129E+01 0.84528212795E+01 0.84786446285E+01 0.84528212795E+01
 0.80710365129E+01 0.75794116191E+01 0.65792144281E+01 0.52765379798E+01 0.30828094490E+01
 0.57592312537E+00 -.21276830093E+01 -.10666192729E+02 -.24146639204E+02 -.38407863923E+02
 -.51332434380E+02 -.61403735785E+02 -.68576328129E+02 -.72666026108E+02 -.77217088295E+02
 -.75841427983E+02 -.71800174823E+02 -.64743808425E+02 -.54637081278E+02 -.41599225628E+02
 -.26945601935E+02 -.12709908171E+02 -.30190908704E+01 0.22167698523E+00 0.26489231370E+01
 0.50115567051E+01 0.63977524841E+01 0.74567696892E+01 0.79211491611E+01 0.83311304324E+01
 0.83388637552E+01 0.83311304324E+01 0.79211491611E+01 0.74567696892E+01 0.63977524841E+01
 0.50115567051E+01 0.26489231370E+01 0.22167698523E+00 -.30190908704E+01 -.12709908171E+02
 -.26945601935E+02 -.41599225628E+02 -.54637081278E+02 -.64743808425E+02 -.71800174823E+02
 -.75841427983E+02 -.77928524469E+02 -.76554196538E+02 -.72521727604E+02 -.65484549635E+02
 -.55432365136E+02 -.42368887981E+02 -.27597830203E+02 -.13253176058E+02 -.33036308862E+01
 0.50611990311E-01 0.24834786045E+01 0.49167305565E+01 0.62739757894E+01 0.73575470090E+01
 0.78672455184E+01 0.82971644044E+01 0.83127198019E+01 0.82971644044E+01 0.78672455184E+01
 0.73575470090E+01 0.62739757894E+01 0.49167305565E+01 0.24834786045E+01 0.50611990311E-01
 -.33036308862E+01 -.13253176058E+02 -.27597830203E+02 -.42368887981E+02 -.55432365136E+02
 -.65484549635E+02 -.72521727604E+02 -.76554196538E+02 -.76268853438E+02 -.74877009872E+02
 -.70828235239E+02 -.63732012856E+02 -.53619319900E+02 -.40621786382E+02 -.26122609149E+02
 -.12160115373E+02 -.29452029808E+01 0.96070522396E-01 0.26009237388E+01 0.49189186306E+01
 0.63187998874E+01 0.73756317961E+01 0.78506425647E+01 0.82555782481E+01 0.82694050237E+01
 0.82555782481E+01 0.78506425647E+01 0.73756317961E+01 0.63187998874E+01 0.49189186306E+01
 0.26009237388E+01 0.96070522396E-01 -.29452029808E+01 -.12160115373E+02 -.26122609149E+02
 -.40621786382E+02 -.53619319900E+02 -.63732012856E+02 -.70828235239E+02 -.74877009872E+02
 -.72109620418E+02 -.70658867481E+02 -.66554589110E+02 -.59339677753E+02 -.49288560199E+02
 -.36472191312E+02 -.22578569572E+02 -.97091218150E+01 -.21013597448E+01 0.34191496907E+00
 0.29910032779E+01 0.50843520138E+01 0.64249029037E+01 0.74069879057E+01 0.79380301203E+01
 0.82974899790E+01 0.83496780770E+01 0.82974899790E+01 0.79380301203E+01 0.74069879057E+01
 0.64249029037E+01 0.50843520138E+01 0.29910032779E+01 0.34191496907E+00 -.21013597448E+01
 -.97091218150E+01 -.22578569572E+02 -.36472191312E+02 -.49288560199E+02 -.59339677753E+02
 -.66554589110E+02 -.70658867481E+02 -.65356337617E+02 -.63879347202E+02 -.59682864332E+02
 -.52391296620E+02 -.42410130176E+02 -.30162909306E+02 -.17392884080E+02 -.64196946658E+01
 -.11802686545E+01 0.88094928094E+00 0.35939843636E+01 0.53269964303E+01 0.66736333129E+01
 0.75191912555E+01 0.80603126572E+01 0.83229494048E+01 0.84264485904E+01 0.83229494048E+01
 0.80603126572E+01 0.75191912555E+01 0.66736333129E+01 0.53269964303E+01 0.35939843636E+01
 0.88094928094E+00 -.11802686545E+01 -.64196946658E+01 -.17392884080E+02 -.30162909306E+02
 -.42410130176E+02 -.52391296620E+02 -.59682864332E+02 -.63879347202E+02 -.55821444287E+02
 -.54384346645E+02 -.50084118032E+02 -.42970010811E+02 -.33450047347E+02 -.22234948523E+02
 -.11229855238E+02 -.32901243188E+01 -.37443101277E+00 0.17893458955E+01 0.42608819637E+01
 0.57366258016E+01 0.69326850235E+01 0.76088171002E+01 0.82302720370E+01 0.84178841619E+01
 0.85971548223E+01 0.84178841619E+01 0.82302720370E+01 0.76088171002E+01 0.69326850235E+01
 0.57366258016E+01 0.42608819637E+01 0.17893458955E+01 -.37443101277E+00 -.32901243188E+01
 -.11229855238E+02 -.22234948523E+02 -.33450047347E+02 -.42970010811E+02 -.50084118032E+02
 -.54384346645E+02 -.43812579282E+02 -.42506453668E+02 -.38287896704E+02 -.31733372738E+02
 -.22977005791E+02 -.13684029383E+02 -.54447829812E+01 -.11880523740E+01 0.50456011957E+00
 0.30357742695E+01 0.48602026232E+01 0.62403530559E+01 0.72249589567E+01 0.78674664262E+01
 0.82784090197E+01 0.85203542178E+01 0.85997684097E+01 0.85203542178E+01 0.82784090197E+01
 0.78674664262E+01 0.72249589567E+01 0.62403530559E+01 0.48602026232E+01 0.30357742695E+01
 0.50456011957E+00 -.11880523740E+01 -.54447829812E+01 -.13684029383E+02 -.22977005791E+02
 -.31733372738E+02 -.38287896704E+02 -.42506453668E+02 -.30238027599E+02 -.28934016007E+02
 -.25313205269E+02 -.19568974188E+02 -.12731993845E+02 -.60182544769E+01 -.16651639789E+01
 -.11968471306E+00 0.20126970065E+01 0.40999055714E+01 0.55468694190E+01 0.67371648847E+01
 0.74781799105E+01 0.81082411526E+01 0.84290985428E+01 0.86830054362E+01 0.86998393462E+01
 0.86830054362E+01 0.84290985428E+01 0.81082411526E+01 0.74781799105E+01 0.67371648847E+01
 0.55468694190E+01 0.40999055714E+01 0.20126970065E+01 -.11968471306E+00 -.16651639789E+01
 -.60182544769E+01 -.12731993845E+02 -.19568974188E+02 -.25313205269E+02 -.28934016007E+02
 -.16699490302E+02 -.15709889477E+02 -.12899753648E+02 -.88273036697E+01 -.45346225118E+01
 -.14972887547E+01 -.29112721178E+00 0.14743196079E+01 0.35139492837E+01 0.49889330148E+01
 0.62473908179E+01 0.71077339017E+01 0.78373544748E+01 0.82681846914E+01 0.86107916446E+01
 0.87493895760E+01 0.88396823841E+01 0.87493895760E+01 0.86107916446E+01 0.82681846914E+01